# vtk DataFile Version 2.0
tet
ASCII
DATASET UNSTRUCTURED_GRID
POINTS 1701 double
-1.000000 -0.400000 -0.400000
-1.000000 -0.400000 -0.200000
-1.000000 -0.400000 0.000000
-1.000000 -0.400000 0.200000
-1.000000 -0.400000 0.400000
-1.000000 -0.200000 -0.400000
-1.000000 -0.200000 -0.200000
-1.000000 -0.200000 0.000000
-1.000000 -0.200000 0.200000
-1.000000 -0.200000 0.400000
-1.000000 0.000000 -0.400000
-1.000000 0.000000 -0.200000
-1.000000 0.000000 0.000000
-1.000000 0.000000 0.200000
-1.000000 0.000000 0.400000
-1.000000 0.200000 -0.400000
-1.000000 0.200000 -0.200000
-1.000000 0.200000 0.000000
-1.000000 0.200000 0.200000
-1.000000 0.200000 0.400000
-1.000000 0.400000 -0.400000
-1.000000 0.400000 -0.200000
-1.000000 0.400000 0.000000
-1.000000 0.400000 0.200000
-1.000000 0.400000 0.400000
-0.800000 -0.400000 -0.400000
-0.800000 -0.400000 -0.200000
-0.800000 -0.400000 0.000000
-0.800000 -0.400000 0.200000
-0.800000 -0.400000 0.400000
-0.800000 -0.200000 -0.400000
-0.800000 -0.200000 -0.200000
-0.800000 -0.200000 0.000000
-0.800000 -0.200000 0.200000
-0.800000 -0.200000 0.400000
-0.800000 0.000000 -0.400000
-0.800000 0.000000 -0.200000
-0.800000 0.000000 0.000000
-0.800000 0.000000 0.200000
-0.800000 0.000000 0.400000
-0.800000 0.200000 -0.400000
-0.800000 0.200000 -0.200000
-0.800000 0.200000 0.000000
-0.800000 0.200000 0.200000
-0.800000 0.200000 0.400000
-0.800000 0.400000 -0.400000
-0.800000 0.400000 -0.200000
-0.800000 0.400000 0.000000
-0.800000 0.400000 0.200000
-0.800000 0.400000 0.400000
-0.600000 -0.400000 -0.400000
-0.600000 -0.400000 -0.200000
-0.600000 -0.400000 0.000000
-0.600000 -0.400000 0.200000
-0.600000 -0.400000 0.400000
-0.600000 -0.200000 -0.400000
-0.600000 -0.200000 -0.200000
-0.600000 -0.200000 0.000000
-0.600000 -0.200000 0.200000
-0.600000 -0.200000 0.400000
-0.600000 0.000000 -0.400000
-0.600000 0.000000 -0.200000
-0.600000 0.000000 0.000000
-0.600000 0.000000 0.200000
-0.600000 0.000000 0.400000
-0.600000 0.200000 -0.400000
-0.600000 0.200000 -0.200000
-0.600000 0.200000 0.000000
-0.600000 0.200000 0.200000
-0.600000 0.200000 0.400000
-0.600000 0.400000 -0.400000
-0.600000 0.400000 -0.200000
-0.600000 0.400000 0.000000
-0.600000 0.400000 0.200000
-0.600000 0.400000 0.400000
-0.400000 -0.400000 -0.400000
-0.400000 -0.400000 -0.200000
-0.400000 -0.400000 0.000000
-0.400000 -0.400000 0.200000
-0.400000 -0.400000 0.400000
-0.400000 -0.200000 -0.400000
-0.400000 -0.200000 -0.200000
-0.400000 -0.200000 0.000000
-0.400000 -0.200000 0.200000
-0.400000 -0.200000 0.400000
-0.400000 0.000000 -0.400000
-0.400000 0.000000 -0.200000
-0.400000 0.000000 0.000000
-0.400000 0.000000 0.200000
-0.400000 0.000000 0.400000
-0.400000 0.200000 -0.400000
-0.400000 0.200000 -0.200000
-0.400000 0.200000 0.000000
-0.400000 0.200000 0.200000
-0.400000 0.200000 0.400000
-0.400000 0.400000 -0.400000
-0.400000 0.400000 -0.200000
-0.400000 0.400000 0.000000
-0.400000 0.400000 0.200000
-0.400000 0.400000 0.400000
-0.200000 -0.400000 -0.400000
-0.200000 -0.400000 -0.200000
-0.200000 -0.400000 0.000000
-0.200000 -0.400000 0.200000
-0.200000 -0.400000 0.400000
-0.200000 -0.200000 -0.400000
-0.200000 -0.200000 -0.200000
-0.200000 -0.200000 0.000000
-0.200000 -0.200000 0.200000
-0.200000 -0.200000 0.400000
-0.200000 0.000000 -0.400000
-0.200000 0.000000 -0.200000
-0.200000 0.000000 0.000000
-0.200000 0.000000 0.200000
-0.200000 0.000000 0.400000
-0.200000 0.200000 -0.400000
-0.200000 0.200000 -0.200000
-0.200000 0.200000 0.000000
-0.200000 0.200000 0.200000
-0.200000 0.200000 0.400000
-0.200000 0.400000 -0.400000
-0.200000 0.400000 -0.200000
-0.200000 0.400000 0.000000
-0.200000 0.400000 0.200000
-0.200000 0.400000 0.400000
-0.000000 -0.400000 -0.400000
-0.000000 -0.400000 -0.200000
-0.000000 -0.400000 0.000000
-0.000000 -0.400000 0.200000
-0.000000 -0.400000 0.400000
-0.000000 -0.200000 -0.400000
-0.000000 -0.200000 -0.200000
-0.000000 -0.200000 0.000000
-0.000000 -0.200000 0.200000
-0.000000 -0.200000 0.400000
-0.000000 0.000000 -0.400000
-0.000000 0.000000 -0.200000
-0.000000 0.000000 0.000000
-0.000000 0.000000 0.200000
-0.000000 0.000000 0.400000
-0.000000 0.200000 -0.400000
-0.000000 0.200000 -0.200000
-0.000000 0.200000 0.000000
-0.000000 0.200000 0.200000
-0.000000 0.200000 0.400000
-0.000000 0.400000 -0.400000
-0.000000 0.400000 -0.200000
-0.000000 0.400000 0.000000
-0.000000 0.400000 0.200000
-0.000000 0.400000 0.400000
0.200000 -0.400000 -0.400000
0.200000 -0.400000 -0.200000
0.200000 -0.400000 0.000000
0.200000 -0.400000 0.200000
0.200000 -0.400000 0.400000
0.200000 -0.200000 -0.400000
0.200000 -0.200000 -0.200000
0.200000 -0.200000 0.000000
0.200000 -0.200000 0.200000
0.200000 -0.200000 0.400000
0.200000 0.000000 -0.400000
0.200000 0.000000 -0.200000
0.200000 0.000000 0.000000
0.200000 0.000000 0.200000
0.200000 0.000000 0.400000
0.200000 0.200000 -0.400000
0.200000 0.200000 -0.200000
0.200000 0.200000 0.000000
0.200000 0.200000 0.200000
0.200000 0.200000 0.400000
0.200000 0.400000 -0.400000
0.200000 0.400000 -0.200000
0.200000 0.400000 0.000000
0.200000 0.400000 0.200000
0.200000 0.400000 0.400000
0.400000 -0.400000 -0.400000
0.400000 -0.400000 -0.200000
0.400000 -0.400000 0.000000
0.400000 -0.400000 0.200000
0.400000 -0.400000 0.400000
0.400000 -0.200000 -0.400000
0.400000 -0.200000 -0.200000
0.400000 -0.200000 0.000000
0.400000 -0.200000 0.200000
0.400000 -0.200000 0.400000
0.400000 0.000000 -0.400000
0.400000 0.000000 -0.200000
0.400000 0.000000 0.000000
0.400000 0.000000 0.200000
0.400000 0.000000 0.400000
0.400000 0.200000 -0.400000
0.400000 0.200000 -0.200000
0.400000 0.200000 0.000000
0.400000 0.200000 0.200000
0.400000 0.200000 0.400000
0.400000 0.400000 -0.400000
0.400000 0.400000 -0.200000
0.400000 0.400000 0.000000
0.400000 0.400000 0.200000
0.400000 0.400000 0.400000
0.600000 -0.400000 -0.400000
0.600000 -0.400000 -0.200000
0.600000 -0.400000 0.000000
0.600000 -0.400000 0.200000
0.600000 -0.400000 0.400000
0.600000 -0.200000 -0.400000
0.600000 -0.200000 -0.200000
0.600000 -0.200000 0.000000
0.600000 -0.200000 0.200000
0.600000 -0.200000 0.400000
0.600000 0.000000 -0.400000
0.600000 0.000000 -0.200000
0.600000 0.000000 0.000000
0.600000 0.000000 0.200000
0.600000 0.000000 0.400000
0.600000 0.200000 -0.400000
0.600000 0.200000 -0.200000
0.600000 0.200000 0.000000
0.600000 0.200000 0.200000
0.600000 0.200000 0.400000
0.600000 0.400000 -0.400000
0.600000 0.400000 -0.200000
0.600000 0.400000 0.000000
0.600000 0.400000 0.200000
0.600000 0.400000 0.400000
0.800000 -0.400000 -0.400000
0.800000 -0.400000 -0.200000
0.800000 -0.400000 0.000000
0.800000 -0.400000 0.200000
0.800000 -0.400000 0.400000
0.800000 -0.200000 -0.400000
0.800000 -0.200000 -0.200000
0.800000 -0.200000 0.000000
0.800000 -0.200000 0.200000
0.800000 -0.200000 0.400000
0.800000 0.000000 -0.400000
0.800000 0.000000 -0.200000
0.800000 0.000000 0.000000
0.800000 0.000000 0.200000
0.800000 0.000000 0.400000
0.800000 0.200000 -0.400000
0.800000 0.200000 -0.200000
0.800000 0.200000 0.000000
0.800000 0.200000 0.200000
0.800000 0.200000 0.400000
0.800000 0.400000 -0.400000
0.800000 0.400000 -0.200000
0.800000 0.400000 0.000000
0.800000 0.400000 0.200000
0.800000 0.400000 0.400000
1.000000 -0.400000 -0.400000
1.000000 -0.400000 -0.200000
1.000000 -0.400000 0.000000
1.000000 -0.400000 0.200000
1.000000 -0.400000 0.400000
1.000000 -0.200000 -0.400000
1.000000 -0.200000 -0.200000
1.000000 -0.200000 0.000000
1.000000 -0.200000 0.200000
1.000000 -0.200000 0.400000
1.000000 0.000000 -0.400000
1.000000 0.000000 -0.200000
1.000000 0.000000 0.000000
1.000000 0.000000 0.200000
1.000000 0.000000 0.400000
1.000000 0.200000 -0.400000
1.000000 0.200000 -0.200000
1.000000 0.200000 0.000000
1.000000 0.200000 0.200000
1.000000 0.200000 0.400000
1.000000 0.400000 -0.400000
1.000000 0.400000 -0.200000
1.000000 0.400000 0.000000
1.000000 0.400000 0.200000
1.000000 0.400000 0.400000
-1.000000 -0.400000 -0.300000
-1.000000 -0.400000 -0.100000
-1.000000 -0.400000 0.100000
-1.000000 -0.400000 0.300000
-1.000000 -0.300000 -0.400000
-1.000000 -0.300000 -0.300000
-1.000000 -0.300000 -0.200000
-1.000000 -0.300000 -0.100000
-1.000000 -0.300000 -0.000000
-1.000000 -0.300000 0.100000
-1.000000 -0.300000 0.200000
-1.000000 -0.300000 0.300000
-1.000000 -0.300000 0.400000
-1.000000 -0.200000 -0.300000
-1.000000 -0.200000 -0.100000
-1.000000 -0.200000 0.100000
-1.000000 -0.200000 0.300000
-1.000000 -0.100000 -0.400000
-1.000000 -0.100000 -0.300000
-1.000000 -0.100000 -0.200000
-1.000000 -0.100000 -0.100000
-1.000000 -0.100000 -0.000000
-1.000000 -0.100000 0.100000
-1.000000 -0.100000 0.200000
-1.000000 -0.100000 0.300000
-1.000000 -0.100000 0.400000
-1.000000 -0.000000 -0.300000
-1.000000 -0.000000 -0.100000
-1.000000 -0.000000 0.100000
-1.000000 -0.000000 0.300000
-1.000000 0.100000 -0.400000
-1.000000 0.100000 -0.300000
-1.000000 0.100000 -0.200000
-1.000000 0.100000 -0.100000
-1.000000 0.100000 -0.000000
-1.000000 0.100000 0.100000
-1.000000 0.100000 0.200000
-1.000000 0.100000 0.300000
-1.000000 0.100000 0.400000
-1.000000 0.200000 -0.300000
-1.000000 0.200000 -0.100000
-1.000000 0.200000 0.100000
-1.000000 0.200000 0.300000
-1.000000 0.300000 -0.400000
-1.000000 0.300000 -0.300000
-1.000000 0.300000 -0.200000
-1.000000 0.300000 -0.100000
-1.000000 0.300000 -0.000000
-1.000000 0.300000 0.100000
-1.000000 0.300000 0.200000
-1.000000 0.300000 0.300000
-1.000000 0.300000 0.400000
-1.000000 0.400000 -0.300000
-1.000000 0.400000 -0.100000
-1.000000 0.400000 0.100000
-1.000000 0.400000 0.300000
-0.900000 -0.400000 -0.400000
-0.900000 -0.400000 -0.300000
-0.900000 -0.400000 -0.200000
-0.900000 -0.400000 -0.100000
-0.900000 -0.400000 -0.000000
-0.900000 -0.400000 0.100000
-0.900000 -0.400000 0.200000
-0.900000 -0.400000 0.300000
-0.900000 -0.400000 0.400000
-0.900000 -0.300000 -0.400000
-0.900000 -0.300000 -0.300000
-0.900000 -0.300000 -0.200000
-0.900000 -0.300000 -0.100000
-0.900000 -0.300000 -0.000000
-0.900000 -0.300000 0.100000
-0.900000 -0.300000 0.200000
[...]
CELL_DATA 1280
SCALARS para double
LOOKUP_TABLE default
1034.482759
1034.482759
1034.482759
1034.482759
103.448276
103.448276
103.448276
103.448276
1034.482759
1034.482759
1034.482759
1034.482759
103.448276
103.448276
103.448276
103.448276
1034.482759
1034.482759
1034.482759
1034.482759
103.448276
103.448276
103.448276
103.448276
1034.482759
1034.482759
1034.482759
1034.482759
103.448276
103.448276
103.448276
103.448276
1034.482759
1034.482759
1034.482759
1034.482759
103.448276
103.448276
103.448276
103.448276
1034.482759
1034.482759
1034.482759
1034.482759
103.448276
103.448276
103.448276
103.448276
1034.482759
1034.482759
1034.482759
1034.482759
103.448276
103.448276
103.448276
103.448276
1034.482759
1034.482759
1034.482759
1034.482759
103.448276
103.448276
103.448276
103.448276
1034.482759
1034.482759
1034.482759
1034.482759
103.448276
103.448276
103.448276
103.448276
1034.482759
1034.482759
1034.482759
1034.482759
103.448276
103.448276
103.448276
103.448276
1034.482759
1034.482759
1034.482759
1034.482759
103.448276
103.448276
103.448276
103.448276
1034.482759
1034.482759
1034.482759
1034.482759
103.448276
103.448276
103.448276
103.448276
1034.482759
1034.482759
1034.482759
1034.482759
103.448276
103.448276
103.448276
103.448276
1034.482759
1034.482759
1034.482759
1034.482759
103.448276
103.448276
103.448276
103.448276
1034.482759
1034.482759
1034.482759
1034.482759
103.448276
103.448276
103.448276
103.448276
1034.482759
1034.482759
1034.482759
1034.482759
103.448276
103.448276
103.448276
103.448276
1034.482759
1034.482759
1034.482759
1034.482759
103.448276
103.448276
103.448276
103.448276
1034.482759
1034.482759
1034.482759
1034.482759
103.448276
103.448276
103.448276
103.448276
1034.482759
1034.482759
1034.482759
1034.482759
103.448276
103.448276
103.448276
103.448276
1034.482759
1034.482759
1034.482759
1034.482759
103.448276
103.448276
103.448276
103.448276
1034.482759
1034.482759
1034.482759
1034.482759
103.448276
103.448276
103.448276
103.448276
1034.482759
1034.482759
1034.482759
1034.482759
103.448276
103.448276
103.448276
103.448276
1034.482759
1034.482759
1034.482759
1034.482759
103.448276
103.448276
103.448276
103.448276
1034.482759
1034.482759
1034.482759
1034.482759
103.448276
103.448276
103.448276
103.448276
1034.482759
1034.482759
1034.482759
1034.482759
103.448276
103.448276
103.448276
103.448276
1034.482759
1034.482759
1034.482759
1034.482759
103.448276
103.448276
103.448276
103.448276
1034.482759
1034.482759
1034.482759
1034.482759
103.448276
103.448276
103.448276
103.448276
1034.482759
1034.482759
1034.482759
1034.482759
103.448276
103.448276
103.448276
103.448276
1034.482759
1034.482759
1034.482759
1034.482759
103.448276
103.448276
103.448276
103.448276
1034.482759
1034.482759
1034.482759
1034.482759
103.448276
103.448276
103.448276
103.448276
1034.482759
1034.482759
1034.482759
1034.482759
103.448276
103.448276
103.448276
103.448276
1034.482759
1034.482759
1034.482759
1034.482759
103.448276
103.448276
103.448276
103.448276
1034.482759
1034.482759
1034.482759
1034.482759
103.448276
103.448276
103.448276
103.448276
1034.482759
1034.482759
1034.482759
1034.482759
103.448276
103.448276
103.448276
103.448276
1034.482759
1034.482759
1034.482759
1034.482759
103.448276
103.448276
103.448276
103.448276
1034.482759
1034.482759
1034.482759
1034.482759
103.448276
103.448276
103.448276
103.448276
1034.482759
1034.482759
1034.482759
1034.482759
103.448276
103.448276
103.448276
103.448276
1034.482759
1034.482759
1034.482759
1034.482759
103.448276
103.448276
103.448276
103.448276
1034.482759
1034.482759
1034.482759
1034.482759
103.448276
103.448276
103.448276
103.448276
1034.482759
1034.482759
1034.482759
1034.482759
103.448276
103.448276
103.448276
103.448276
1034.482759
1034.482759
1034.482759
1034.482759
103.448276
103.448276
103.448276
103.448276
1034.482759
1034.482759
1034.482759
1034.482759
103.448276
103.448276
103.448276
103.448276
1034.482759
1034.482759
1034.482759
1034.482759
103.448276
103.448276
103.448276
103.448276
1034.482759
1034.482759
1034.482759
1034.482759
103.448276
103.448276
103.448276
103.448276
1034.482759
1034.482759
1034.482759
1034.482759
103.448276
103.448276
103.448276
103.448276
1034.482759
1034.482759
1034.482759
1034.482759
103.448276
103.448276
103.448276
103.448276
1034.482759
1034.482759
1034.482759
1034.482759
103.448276
103.448276
103.448276
103.448276
1034.482759
1034.482759
1034.482759
1034.482759
103.448276
103.448276
103.448276
103.448276
1034.482759
1034.482759
1034.482759
1034.482759
103.448276
103.448276
103.448276
103.448276
1034.482759
1034.482759
1034.482759
1034.482759
103.448276
103.448276
103.448276
103.448276
1034.482759
1034.482759
1034.482759
1034.482759
103.448276
103.448276
103.448276
103.448276
1034.482759
1034.482759
1034.482759
1034.482759
103.448276
103.448276
103.448276
103.448276
1034.482759
1034.482759
1034.482759
1034.482759
103.448276
103.448276
103.448276
103.448276
1034.482759
1034.482759
1034.482759
1034.482759
103.448276
103.448276
103.448276
103.448276
1034.482759
1034.482759
1034.482759
1034.482759
103.448276
103.448276
103.448276
103.448276
1034.482759
1034.482759
1034.482759
1034.482759
103.448276
103.448276
103.448276
103.448276
1034.482759
1034.482759
1034.482759
1034.482759
103.448276
103.448276
103.448276
103.448276
1034.482759
1034.482759
1034.482759
1034.482759
103.448276
103.448276
103.448276
103.448276
1034.482759
1034.482759
1034.482759
1034.482759
103.448276
103.448276
103.448276
103.448276
1034.482759
1034.482759
1034.482759
1034.482759
103.448276
103.448276
103.448276
103.448276
1034.482759
1034.482759
1034.482759
1034.482759
103.448276
103.448276
103.448276
103.448276
1034.482759
1034.482759
1034.482759
1034.482759
103.448276
103.448276
103.448276
103.448276
1034.482759
1034.482759
1034.482759
1034.482759
103.448276
103.448276
103.448276
103.448276
1034.482759
1034.482759
1034.482759
1034.482759
103.448276
103.448276
103.448276
103.448276
1034.482759
1034.482759
1034.482759
1034.482759
103.448276
103.448276
103.448276
103.448276
1034.482759
1034.482759
1034.482759
1034.482759
103.448276
103.448276
103.448276
103.448276
1034.482759
1034.482759
1034.482759
1034.482759
103.448276
103.448276
103.448276
103.448276
1034.482759
1034.482759
1034.482759
1034.482759
103.448276
103.448276
103.448276
103.448276
1034.482759
1034.482759
1034.482759
1034.482759
103.448276
103.448276
103.448276
103.448276
1034.482759
1034.482759
1034.482759
1034.482759
103.448276
103.448276
103.448276
103.448276
1034.482759
1034.482759
1034.482759
1034.482759
103.448276
103.448276
103.448276
103.448276
1034.482759
1034.482759
1034.482759
1034.482759
103.448276
103.448276
103.448276
103.448276
1034.482759
1034.482759
1034.482759
1034.482759
103.448276
103.448276
103.448276
103.448276
1034.482759
1034.482759
1034.482759
1034.482759
103.448276
103.448276
103.448276
103.448276
1034.482759
1034.482759
1034.482759
1034.482759
103.448276
103.448276
103.448276
103.448276
1034.482759
1034.482759
1034.482759
1034.482759
103.448276
103.448276
103.448276
103.448276
1034.482759
1034.482759
1034.482759
1034.482759
103.448276
103.448276
103.448276
103.448276
1034.482759
1034.482759
1034.482759
1034.482759
103.448276
103.448276
103.448276
103.448276
1034.482759
1034.482759
1034.482759
1034.482759
103.448276
103.448276
103.448276
103.448276
1034.482759
1034.482759
1034.482759
1034.482759
103.448276
103.448276
103.448276
103.448276
1034.482759
1034.482759
1034.482759
1034.482759
103.448276
103.448276
103.448276
103.448276
1034.482759
1034.482759
1034.482759
1034.482759
103.448276
103.448276
103.448276
103.448276
1034.482759
1034.482759
1034.482759
1034.482759
103.448276
103.448276
103.448276
103.448276
1034.482759
1034.482759
1034.482759
1034.482759
103.448276
103.448276
103.448276
103.448276
1034.482759
1034.482759
1034.482759
1034.482759
103.448276
103.448276
103.448276
103.448276
1034.482759
1034.482759
1034.482759
1034.482759
103.448276
103.448276
103.448276
103.448276
1034.482759
1034.482759
1034.482759
1034.482759
103.448276
103.448276
103.448276
103.448276
1034.482759
1034.482759
1034.482759
1034.482759
103.448276
103.448276
103.448276
103.448276
1034.482759
1034.482759
1034.482759
1034.482759
103.448276
103.448276
103.448276
103.448276
1034.482759
1034.482759
1034.482759
1034.482759
103.448276
103.448276
103.448276
103.448276
1034.482759
1034.482759
1034.482759
1034.482759
103.448276
103.448276
103.448276
103.448276
1034.482759
1034.482759
1034.482759
1034.482759
103.448276
103.448276
103.448276
103.448276
1034.482759
1034.482759
1034.482759
1034.482759
103.448276
103.448276
103.448276
103.448276
1034.482759
1034.482759
1034.482759
1034.482759
103.448276
103.448276
103.448276
103.448276
1034.482759
1034.482759
1034.482759
1034.482759
103.448276
103.448276
103.448276
103.448276
1034.482759
1034.482759
1034.482759
1034.482759
103.448276
103.448276
103.448276
103.448276
1034.482759
1034.482759
1034.482759
1034.482759
103.448276
103.448276
103.448276
103.448276
1034.482759
1034.482759
1034.482759
1034.482759
103.448276
103.448276
103.448276
103.448276
1034.482759
1034.482759
1034.482759
1034.482759
103.448276
103.448276
103.448276
103.448276
1034.482759
1034.482759
1034.482759
1034.482759
103.448276
103.448276
103.448276
103.448276
1034.482759
1034.482759
1034.482759
1034.482759
103.448276
103.448276
103.448276
103.448276
1034.482759
1034.482759
1034.482759
1034.482759
103.448276
103.448276
103.448276
103.448276
1034.482759
1034.482759
1034.482759
1034.482759
103.448276
103.448276
103.448276
103.448276
1034.482759
1034.482759
1034.482759
1034.482759
103.448276
103.448276
103.448276
103.448276
1034.482759
1034.482759
1034.482759
1034.482759
103.448276
103.448276
103.448276
103.448276
1034.482759
1034.482759
1034.482759
1034.482759
103.448276
103.448276
103.448276
103.448276
1034.482759
1034.482759
1034.482759
1034.482759
103.448276
103.448276
103.448276
103.448276
1034.482759
1034.482759
1034.482759
1034.482759
103.448276
103.448276
103.448276
103.448276
1034.482759
1034.482759
1034.482759
1034.482759
103.448276
103.448276
103.448276
103.448276
1034.482759
1034.482759
1034.482759
1034.482759
103.448276
103.448276
103.448276
103.448276
1034.482759
1034.482759
1034.482759
1034.482759
103.448276
103.448276
103.448276
103.448276
1034.482759
1034.482759
1034.482759
1034.482759
103.448276
103.448276
103.448276
103.448276
1034.482759
1034.482759
1034.482759
1034.482759
103.448276
103.448276
103.448276
103.448276
1034.482759
1034.482759
1034.482759
1034.482759
103.448276
103.448276
103.448276
103.448276
1034.482759
1034.482759
1034.482759
1034.482759
103.448276
103.448276
103.448276
103.448276
1034.482759
1034.482759
1034.482759
1034.482759
103.448276
103.448276
103.448276
103.448276
1034.482759
1034.482759
1034.482759
1034.482759
103.448276
103.448276
103.448276
103.448276
1034.482759
1034.482759
1034.482759
1034.482759
103.448276
103.448276
103.448276
103.448276
1034.482759
1034.482759
1034.482759
1034.482759
103.448276
103.448276
103.448276
103.448276
1034.482759
1034.482759
1034.482759
1034.482759
103.448276
103.448276
103.448276
103.448276
1034.482759
1034.482759
1034.482759
1034.482759
103.448276
103.448276
103.448276
103.448276
1034.482759
1034.482759
1034.482759
1034.482759
103.448276
103.448276
103.448276
103.448276
1034.482759
1034.482759
1034.482759
1034.482759
103.448276
103.448276
103.448276
103.448276
1034.482759
1034.482759
1034.482759
1034.482759
103.448276
103.448276
103.448276
103.448276
1034.482759
1034.482759
1034.482759
1034.482759
103.448276
103.448276
103.448276
103.448276
1034.482759
1034.482759
1034.482759
1034.482759
103.448276
103.448276
103.448276
103.448276
1034.482759
1034.482759
1034.482759
1034.482759
103.448276
103.448276
103.448276
103.448276
1034.482759
1034.482759
1034.482759
1034.482759
103.448276
103.448276
103.448276
103.448276
1034.482759
1034.482759
1034.482759
1034.482759
103.448276
103.448276
103.448276
103.448276
1034.482759
1034.482759
1034.482759
1034.482759
103.448276
103.448276
103.448276
103.448276
1034.482759
1034.482759
1034.482759
1034.482759
103.448276
103.448276
103.448276
103.448276
1034.482759
1034.482759
1034.482759
1034.482759
103.448276
103.448276
103.448276
103.448276
1034.482759
1034.482759
1034.482759
1034.482759
103.448276
103.448276
103.448276
103.448276
1034.482759
1034.482759
1034.482759
1034.482759
103.448276
103.448276
103.448276
103.448276
1034.482759
1034.482759
1034.482759
1034.482759
103.448276
103.448276
103.448276
103.448276
1034.482759
1034.482759
1034.482759
1034.482759
103.448276
103.448276
103.448276
103.448276
1034.482759
1034.482759
1034.482759
1034.482759
103.448276
103.448276
103.448276
103.448276
1034.482759
1034.482759
1034.482759
1034.482759
103.448276
103.448276
103.448276
103.448276
1034.482759
1034.482759
1034.482759
1034.482759
103.448276
103.448276
103.448276
103.448276
1034.482759
1034.482759
1034.482759
1034.482759
103.448276
103.448276
103.448276
103.448276
1034.482759
1034.482759
1034.482759
1034.482759
103.448276
103.448276
103.448276
103.448276
1034.482759
1034.482759
1034.482759
1034.482759
103.448276
103.448276
103.448276
103.448276
1034.482759
1034.482759
1034.482759
1034.482759
103.448276
103.448276
103.448276
103.448276
1034.482759
1034.482759
1034.482759
1034.482759
103.448276
103.448276
103.448276
103.448276
1034.482759
1034.482759
1034.482759
1034.482759
103.448276
103.448276
103.448276
103.448276
1034.482759
1034.482759
1034.482759
1034.482759
103.448276
103.448276
103.448276
103.448276
1034.482759
1034.482759
1034.482759
1034.482759
103.448276
103.448276
103.448276
103.448276
1034.482759
1034.482759
1034.482759
1034.482759
103.448276
103.448276
103.448276
103.448276
1034.482759
1034.482759
1034.482759
1034.482759
103.448276
103.448276
103.448276
103.448276
1034.482759
1034.482759
1034.482759
1034.482759
103.448276
103.448276
103.448276
103.448276
1034.482759
1034.482759
1034.482759
1034.482759
103.448276
103.448276
103.448276
103.448276
1034.482759
1034.482759
1034.482759
1034.482759
103.448276
103.448276
103.448276
103.448276
1034.482759
1034.482759
1034.482759
1034.482759
103.448276
103.448276
103.448276
103.448276
1034.482759
1034.482759
1034.482759
1034.482759
103.448276
103.448276
103.448276
103.448276
1034.482759
1034.482759
1034.482759
1034.482759
103.448276
103.448276
103.448276
103.448276
1034.482759
1034.482759
1034.482759
1034.482759
103.448276
103.448276
103.448276
103.448276
1034.482759
1034.482759
1034.482759
1034.482759
103.448276
103.448276
103.448276
103.448276
1034.482759
1034.482759
1034.482759
1034.482759
103.448276
103.448276
103.448276
103.448276
1034.482759
1034.482759
1034.482759
1034.482759
103.448276
103.448276
103.448276
103.448276
1034.482759
1034.482759
1034.482759
1034.482759
103.448276
103.448276
103.448276
103.448276
